29
	Energy:      22.2367040
C          2.58788        0.07778        0.19088
C          1.09204        0.06722        0.06686
C          0.37632        1.19717       -0.05880
C         -1.12347        1.23201       -0.14689
C         -1.80982       -0.09631        0.25307
C         -1.02657       -1.26580       -0.37703
C          0.43377       -1.28633        0.08948
C         -3.33124       -0.10227       -0.09569
C         -4.01846       -1.40869        0.32733
C         -4.06550        1.06809        0.57433
O         -3.51703        0.05511       -1.50504
H          2.99486        1.09435        0.18103
H          3.04212       -0.47173       -0.63990
H          2.89335       -0.39494        1.12990
H          0.87990        2.16086       -0.09583
H         -1.39401        1.51697       -1.17041
H         -1.47470        2.03209        0.51503
H         -1.72388       -0.19884        1.34530
H         -1.05170       -1.18740       -1.47135
H         -1.47452       -2.22976       -0.11604
H          0.98945       -1.98181       -0.55097
H          0.48376       -1.68057        1.11213
H         -3.86445       -1.61741        1.39084
H         -3.66291       -2.26344       -0.25685
H         -5.09773       -1.35786        0.13990
H         -3.92448        1.06307        1.65996
H         -5.14152        1.02204        0.36775
H         -3.73376        2.03345        0.17781
H         -3.17371       -0.73803       -1.94979
