41
	Energy:     -19.7113867
C         -4.30353        0.26397       -6.35926
C         -4.12856        0.78889       -4.96514
C         -5.12164        1.57661       -4.37420
C         -4.94343        2.09761       -3.09079
C         -3.76532        1.84387       -2.37643
C         -3.58641        2.37857       -0.97136
C         -4.09993        1.44099        0.14074
N         -3.51318        0.09381        0.15210
C         -2.17924       -0.09760        0.36085
O         -1.32768        0.77226        0.31897
O         -1.98056       -1.40208        0.64785
C         -0.64719       -1.90507        0.92589
C         -0.06589       -1.26546        2.19157
C         -0.84220       -3.40759        1.18000
C          0.27880       -1.72923       -0.28298
C         -5.62348        1.32473        0.03449
O         -6.03156        0.19319       -0.59668
O         -6.40869        2.18807        0.39743
C         -2.76237        1.07530       -2.97951
C         -2.94117        0.55560       -4.26353
H         -5.36216        0.09832       -6.58533
H         -3.79177       -0.69649       -6.48075
H         -3.89567        0.97747       -7.08183
H         -6.04314        1.79360       -4.91058
H         -5.73629        2.70513       -2.65630
H         -4.10320        3.34538       -0.89978
H         -2.52682        2.61373       -0.81748
H         -3.87762        1.87881        1.12169
H         -4.04979       -0.65933        0.56919
H         -0.77919       -1.32770        3.02114
H          0.15610       -0.20370        2.04826
H          0.86493       -1.75674        2.49491
H         -1.53129       -3.57529        2.01601
H          0.10489       -3.90846        1.40666
H         -1.29142       -3.89524        0.30691
H          0.51308       -0.67684       -0.46951
H         -0.19449       -2.11183       -1.19424
H          1.22884       -2.25444       -0.13655
H         -5.27201       -0.24205       -1.04213
H         -1.82622        0.88400       -2.45788
H         -2.14255       -0.02878       -4.71542
