26
	Energy:      56.5483901
C          3.14775        0.44404        3.38036
C          2.65158        0.88452        2.02863
C          2.27794        2.22700        1.85239
C          1.84556        2.69495        0.61208
C          1.78885        1.83005       -0.47407
C          2.15676        0.49503       -0.31821
C          2.58016        0.00220        0.92967
C          2.91230       -1.47293        1.05018
C          1.75338       -2.30492        1.62275
N          2.26246       -3.63523        2.04814
C          0.64203       -2.50058        0.57509
O         -0.21449       -1.45937        0.47228
O          0.51354       -3.51459       -0.09995
H          3.13031        1.26801        4.10200
H          4.18261        0.09496        3.30935
H          2.51818       -0.35286        3.78487
H          2.33193        2.92690        2.68448
H          1.56544        3.73852        0.49216
H          1.46186        2.19443       -1.44490
H          2.10254       -0.16475       -1.18378
H          3.80659       -1.57627        1.67790
H          3.20721       -1.86127        0.06551
H          1.30744       -1.83967        2.50777
H          2.55341       -4.13839        1.20307
H          1.46930       -4.18666        2.38526
H          0.02434       -0.68714        1.02495
