36
	Energy:     136.4811369
O          0.58742        1.46774        2.00837
C          1.52219        2.22724        1.23569
C          2.61999        1.29727        0.70741
O          3.41031        0.84550        1.82282
C          4.36144       -0.14890        1.44616
O          5.12472       -0.59370        2.58006
C          4.49726       -1.35506        3.53157
C          3.13027       -1.65491        3.53974
C          2.58031       -2.45380        4.54888
C          3.38611       -2.96157        5.56407
C          4.74607       -2.66402        5.57783
C          5.29796       -1.86063        4.57015
C          6.74397       -1.55230        4.62628
O          7.48206       -2.03245        5.47969
C          5.37410        0.45955        0.45385
O          6.31118       -0.51688       -0.02969
C          4.63450        1.04812       -0.74719
O          5.55016        1.75378       -1.60030
C          3.52902        2.00890       -0.30114
O          2.79800        2.44394       -1.44850
H         -0.03421        2.10539        2.39966
H          1.94627        2.99715        1.88871
H          0.96923        2.70233        0.42024
H          2.13216        0.42704        0.24754
H          3.87120       -1.01577        0.98132
H          2.44890       -1.26819        2.78692
H          1.51425       -2.67136        4.54268
H          2.95506       -3.57960        6.34781
H          5.37463       -3.05285        6.37680
H          7.14395       -0.86720        3.86185
H          5.96718        1.24214        0.94356
H          6.72370       -0.91746        0.75962
H          4.21261        0.24757       -1.36813
H          6.30039        1.13935       -1.73493
H          3.98225        2.89903        0.15318
H          3.47837        2.70861       -2.10159
